     195
 i =      200, E =     -1141.1129472603
  O         0.6508870837        2.5711301080        0.6175852404
  C         1.0572149612        1.3206980468        0.8123088148
  H         0.3659618846        3.0039317916        1.5333669572
  O         1.6196230035        0.8088773959       -0.2872025138
  H         2.1142513623       -0.0409819030       -0.0570543084
  O         0.9461854986        0.6906486525        1.8839504354
  O         6.5335906025        7.3232377601        0.1152404266
  H         6.0255909276        6.6238442274       -0.3842038920
  H         7.5028179433        7.2756774930       -0.1971295378
  O         5.6953581616        4.4086284282        2.5531058821
  H         5.8241057254        3.6339919944        3.1930814244
  H         6.4030896891        4.2391622867        1.8744889833
  O         9.1150015270        7.2177620855        6.8147771539
  H         9.7182007216        7.9696808329        7.0462911217
  H         9.6643034263        6.4298581322        7.0661397364
  O         0.8216468983        7.4485044368        7.0467728542
  H         0.2147541892        8.2388486778        7.0200728283
  H         1.6712226615        7.7550510298        7.4484937065
  O         6.2318953438       10.5224477007       10.6912289384
  H         5.6942172570       11.3260356915       10.4652251171
  H         6.4497333097       10.6376594515       11.6414371021
  O         9.2807363589        9.4320595386        1.0542948322
  H         8.5614997464       10.0925800139        0.8479375767
  H        10.0907801848       10.0344505466        1.1519752018
  O        12.0952173121       12.4796650608        6.9874240880
  H        12.7776045546       11.7803051767        7.1781219782
  H        12.2580212537       12.7914215872        6.0480827421
  O         4.9150324769        5.2167162866       11.7075048773
  H         5.4410956148        4.5976701641       12.2903712972
  H         4.0708819253        5.5428378223       12.1489939998
  O         5.9111432235        2.0364802033        3.8044318616
  H         5.2528697925        1.5052267112        3.2584719357
  H         5.5571988769        1.9681355459        4.7395539136
  O         9.9674915116        1.4549971717        1.3451827790
  H         9.2739282905        1.2318231728        2.0313066078
  H        10.5185691359        2.1331721862        1.7921797594
  O         4.9846246266        8.2362739483        9.9753835505
  H         5.5931668750        9.0340886890       10.0514527877
  H         5.5922191110        7.4607925452        9.7802168624
  O         7.4561704674       -0.8608408795        0.6022908651
  H         7.5230991412       -0.1479955551       -0.0943745083
  H         7.6294433947       -0.3710826598        1.4701079114
  O         6.5199763448        5.8515474097        9.4508380191
  H         5.8164874194        5.3557430724        9.9387467583
  H         6.2806298064        5.7330335680        8.4741022736
  O        12.4753666790        1.2617621198        4.4855070189
  H        12.6020211410        0.9420746181        3.5521379558
  H        11.5809016009        1.7610263258        4.4735555142
  O        11.1102876149        9.2038178868        6.7772117175
  H        11.0281132856       10.1674605247        6.9339880406
  H        10.9653792931        9.0779378703        5.7776615882
  O         9.5135627947        3.0317406406        7.6745790430
  H         9.0791847939        3.6285732179        7.0109218291
  H         9.0224571736        3.2006804828        8.5168813000
  O        10.3133632401        5.2125253636        0.8139896085
  H         9.7280587979        4.7242735830        1.4422446520
  H        10.8325588500        5.8475245871        1.4070807556
  O         5.9775959102       11.6010264968        4.8603571630
  H         5.0408162872       11.6956046705        4.5902808604
  H         6.3389707536       10.9741287012        4.1585455353
  O        11.0814534903       11.3773878015        1.1479866440
  H        10.6838461050       12.3011687538        1.1813763921
  H        12.0020511034       11.5069882109        1.4525593679
  O        11.6798842709        7.1495575001        2.0818979630
  H        11.3833752073        7.8255997856        2.7398331690
  H        12.5635937170        6.8225340528        2.3950055013
  O         5.5654713782        5.4118161237        6.9179954129
  H         4.7308799157        4.8880138160        7.0728540870
  H         5.2728090824        6.2904111930        6.5196092679
  O         3.4759157707        7.7096068655        3.5834947661
  H         4.3254091697        7.5920186748        3.0493902325
  H         3.2573261964        8.6777714602        3.6237714188
  O         6.0851071502       12.1290195453        7.4975600331
  H         6.9581495377       12.5514953393        7.6379864660
  H         6.1378432194       11.7811879942        6.5544219374
  O         3.6926836854        3.1376963286        1.1655177578
  H         2.8264819358        3.5963381252        1.0604998725
  H         4.2910460620        3.7352833071        1.7106419601
  O         3.4576150354        3.7064940800        7.6093582447
  H         3.7454485753        3.4744072004        8.5736046861
  H         2.4768734506        3.7567783160        7.6206532235
  O         2.7063986387        6.5108694522        0.1638267687
  H         2.0724195939        6.7121215317       -0.6026322427
  H         3.1555345036        7.3940264153        0.3340986676
  O         4.0260060100        0.7380956640        2.3138894173
  H         3.3430953426        0.6177165250        3.0371033595
  H         3.7664509989        1.5962842744        1.8377784267
  O         1.7038044883        5.8954577366        2.5709158818
  H         2.0023182398        6.0958828355        1.6259498897
  H         2.2743985548        6.4983679728        3.1239420459
  O         6.9903555162        3.7054939647        0.2746569280
  H         6.9082278004        2.7325506924        0.0866598109
  H         7.6371890427        3.9726927698       -0.4358575025
  O         6.5565543984        9.9757978014        2.8014065472
  H         6.4222998953       10.4001249870        1.9199860052
  H         5.9859445143        9.1687043855        2.8441871173
  O         7.0276459231        9.5031706823        8.0846501219
  H         7.9168684487        9.5424435429        8.5590505843
  H         6.6348497219       10.3986013656        8.1930075240
  O         7.9977112465        0.3900342152        2.8890205610
  H         8.2869194750       -0.2769653744        3.5906995911
  H         7.2947859785        0.9704723707        3.2984944142
  O         3.2714638143       10.2695709699        4.5597508047
  H         3.7776656490       10.0109950697        5.3680376246
  H         2.9914251624       11.2375700401        4.6662673709
  O         5.9046001292        7.1053977305        2.6661167570
  H         6.2128755468        7.1372743718        1.6945080897
  H         5.8275890711        6.1172340731        2.8368067365
  O         8.8006086095       10.9558481940        4.7578342260
  H         9.0535041228       11.2684432251        5.6745372321
  H         8.2112903778       10.1572796326        4.9293843197
  O         4.2310057777        8.8103555414       12.5138470755
  H         4.3047058932        8.6137923665       11.5246970321
  H         5.1467099472        8.4948472326       12.7624947783
  O         1.8775022560       10.6891754719        7.2306209118
  H         2.3567768585        9.8947961848        7.6651359923
  H         1.8848737001       10.4495938545        6.2748759273
  O         7.1352388248        1.2601794512       11.2555165131
  H         6.2647755335        1.0928302862       10.8074499082
  H         7.6233777271        1.9236561478       10.7113657287
  O         7.7322114092        4.1623873308        5.7247535081
  H         6.9272865134        4.6049055816        6.1202859360
  H         7.5486329727        3.1882332878        5.7198416902
  O        10.8787233413        7.9331605793        9.9340317663
  H        10.2435959296        7.5833993344       10.6338542516
  H        10.8800346593        7.2250752060        9.2083601006
  O        10.2027880329        2.4856360065        4.2387391005
  H        10.0202918744        3.4178687363        3.9185567533
  H         9.3557159312        2.1385244020        4.6127858726
  O         4.8002018831        7.8413278905        5.9325177771
  H         4.2906739963        7.6979598206        5.0775773168
  H         5.7160789389        8.2110538233        5.6947190865
  O         3.5884353713       11.5044096208        0.1977523710
  H         3.8461135295       11.9513384804        1.0606652088
  H         3.8115513843       10.5282290708        0.2408866786
  O         2.6990831373        0.4637777813        4.7246789527
  H         1.7945550715        0.8600758608        4.8131821244
  H         3.3244940068        0.9464041038        5.3675658479
  O         2.7702301970        0.5257505042        8.5636187574
  H         2.4815826874       -0.2488475831        8.0060752511
  H         1.9540824608        0.9481527877        8.9014908933
  O         3.2117468560        8.5212771677        8.0077727814
  H         3.8178442510        8.2805076374        7.2363006911
  H         3.8267811006        8.4412427129        8.8134066787
  O         9.1458991046        7.2532317948       11.9240330264
  H         9.5408246013        6.4506261431       12.4033134915
  H         9.3507180031        8.0565784831       12.4991539720
  O        11.0516588591        4.1472425197       10.4019983658
  H        11.3383445148        4.2193395663       11.3421682643
  H        11.5645657410        3.4145683480        9.9605750933
  O         4.6129662841        0.4330217465       10.5069444135
  H         3.9529401298        0.3602331253        9.7433955888
  H         4.1804868737       -0.0057818563       11.3058452551
  O        11.2478580688        5.9833431640        8.1410942009
  H        12.1089787443        6.3348391375        7.7484220584
  H        11.4734783401        5.2874814803        8.8051626799
  O         7.9732557812        1.4233273705        5.7488568526
  H         8.5459035564        1.0202061812        6.4532713732
  H         7.4177188674        0.6989897319        5.3787794632
  O         9.4176524820       11.9135285254        7.2937824490
  H        10.3668578761       12.2430314350        7.2897104109
  H         9.3794491787       11.2648856419        8.0613964771
  O         9.0141518749        4.7859276992        3.3765360465
  H         9.1011980613        5.7684096968        3.2636777880
  H         8.4145697626        4.6689446840        4.1735419458
  O         8.6859127153        7.5683994910        3.0283305809
  H         7.7063694736        7.5904646951        3.1858744333
  H         8.8443595873        8.2258516676        2.2869459767
  O        12.1675667935        2.7337331813        8.2527744141
  H        12.2463455945        1.7944662078        7.9658776978
  H        11.2458434554        2.9631607613        7.9319673292
  O         1.1501222369        7.1933980864       10.4934543960
  H         1.5582359899        7.4532038857        9.6386031250
  H         0.2077609857        7.5363685108       10.4510148537
  O        12.5780543098        3.7292075139        2.8261581237
  H        13.1595084479        4.5544353221        2.8608012052
  H        12.7959216779        3.1747645098        3.6072131011
  O         7.2922325467        8.7860967860        5.6141201651
  H         7.9166145854        8.0177919317        5.7703142155
  H         7.1977567406        9.1311423668        6.5865581929
  O        10.6582269803        8.9437511811        4.1700570724
  H         9.8604524565        8.3390111072        4.0277793092
  H        10.2469270271        9.8386434142        4.0199036916
  O         8.3781003598        3.8400137792       10.2374676608
  H         7.9227016934        4.6554587525        9.8897342852
  H         9.3648874259        4.0455376446       10.3617272407
  O         9.3839555190       10.0372105555        9.3106367503
  H        10.0527691507        9.2755809059        9.4854816185
  H         9.0896543200       10.3584814757       10.1945501428
  O         4.5511706142        1.6916326556        6.1964919254
  H         4.9860495666        1.0896696448        6.8546737927
  H         4.1061085694        2.4282818248        6.7325449221
  O         4.4122161987        3.1805640895        9.9543559612
  H         4.3986962570        3.8706517985       10.6731088888
  H         4.4047634548        2.2857087819       10.3715603381
